 Gaussian 09, Revision D.01,
 Gaussian 09:  ES64L-G09RevD.01 24-Apr-2013

 -------------------------------------------------------------
 #p opt=tight freq b3lyp/6-31g(d) guess=save geom=connectivity
 -------------------------------------------------------------

 --------------------------------
 MATrp OptFreq tight B3LYP/6-31Gd
 --------------------------------
 Symbolic Z-matrix:
 Charge =  0 Multiplicity = 1

 SCF Done:  E(RB3LYP) =  -955.701501843     A.U. after   16 cycles
 SCF Done:  E(RB3LYP) =  -955.714155207     A.U. after   14 cycles
 SCF Done:  E(RB3LYP) =  -955.715767166     A.U. after   13 cycles
 SCF Done:  E(RB3LYP) =  -955.717851623     A.U. after   13 cycles
 SCF Done:  E(RB3LYP) =  -955.717315237     A.U. after   13 cycles
 SCF Done:  E(RB3LYP) =  -955.718605702     A.U. after   11 cycles
 SCF Done:  E(RB3LYP) =  -955.719452086     A.U. after   13 cycles
 SCF Done:  E(RB3LYP) =  -955.719854203     A.U. after   13 cycles
 SCF Done:  E(RB3LYP) =  -955.721109198     A.U. after   13 cycles
 SCF Done:  E(RB3LYP) =  -955.721958480     A.U. after   12 cycles
 SCF Done:  E(RB3LYP) =  -955.729907420     A.U. after   10 cycles
 SCF Done:  E(RB3LYP) =  -955.729907926     A.U. after    8 cycles
 SCF Done:  E(RB3LYP) =  -955.729907930     A.U. after    7 cycles
 SCF Done:  E(RB3LYP) =  -955.729907979     A.U. after    7 cycles
 SCF Done:  E(RB3LYP) =  -955.729908003     A.U. after    6 cycles
 SCF Done:  E(RB3LYP) =  -955.729908003     A.U. after    5 cycles
 SCF Done:  E(RB3LYP) =  -955.729908002     A.U. after    4 cycles
 SCF Done:  E(RB3LYP) =  -955.729908000     A.U. after    4 cycles
 SCF Done:  E(RB3LYP) =  -955.729907999     A.U. after    4 cycles
 Optimization completed.
    -- Stationary point found.
 Normal termination of Gaussian 09 at Mon Dec 18 20:49:02 2023.

 --------------------------------------------------------------------
 #P Geom=AllCheck Guess=TCheck SCRF=Check GenChk RB3LYP/6-31G(d) Freq
 --------------------------------------------------------------------

 Structure from the checkpoint file:  "MATrp_OptFreq.chk"
 --------------------------------
 MATrp OptFreq tight B3LYP/6-31Gd
 --------------------------------
 Charge =  0 Multiplicity = 1

                         Standard orientation:
 ---------------------------------------------------------------------
 Center     Atomic      Atomic             Coordinates (Angstroms)
 Number     Number       Type             X           Y           Z
 ---------------------------------------------------------------------
      1          7           0        1.890419    0.435187    0.004676
      2          6           0        1.021634    1.125700   -0.928079
      3          1           0        1.658124    1.693337   -1.613311
      4          6           0        0.108418    2.125905   -0.234262
      5          8           0       -0.543943    2.953338   -0.833230
      6          6           0        0.175600    0.148387   -1.807869
      7          1           0       -0.416021    0.759422   -2.498837
      8          1           0        0.900472   -0.411036   -2.407216
      9          6           0       -0.702434   -0.795357   -1.039757
     10          6           0       -0.366464   -2.070650   -0.654727
     11          1           0        0.541619   -2.626743   -0.845728
     12          6           0       -2.040709   -0.563216   -0.541933
     13          7           0       -1.403204   -2.642950    0.057898
     14          1           0       -1.420137   -3.590942    0.399804
     15          6           0       -2.449031   -1.745942    0.136276
     16          6           0       -2.942003    0.515967   -0.616015
     17          1           0       -2.662924    1.432946   -1.126586
     18          6           0       -3.706570   -1.872183    0.735926
     19          1           0       -3.998846   -2.785464    1.248209
     20          6           0       -4.192503    0.393834   -0.021512
     21          1           0       -4.895433    1.220643   -0.078366
     22          6           0       -4.571173   -0.787531    0.649011
     23          1           0       -5.556724   -0.853293    1.101902
     24          8           0        0.065134    1.960778    1.104458
     25          1           0        1.540008    0.283709    0.937770
     26          6           0       -0.864094    2.808902    1.806125
     27          1           0       -0.699352    2.608295    2.864954
     28          1           0       -0.671346    3.858649    1.574432
     29          1           0       -1.887255    2.552194    1.520654
     30          6           0        3.096143   -0.073601   -0.391471
     31          6           0        3.890391   -0.785942    0.677635
     32          6           0        5.072782   -1.296112    0.316863
     33          6           0        3.344793   -0.897399    2.081333
     34          8           0        3.500411    0.051176   -1.546949
     35          1           0        5.708130   -1.821041    1.024912
     36          1           0        5.422741   -1.188030   -0.704346
     37          1           0        4.043996   -1.435994    2.727285
     38          1           0        3.171939    0.089607    2.530585
     39          1           0        2.388992   -1.438825    2.106369
 ---------------------------------------------------------------------

 SCF Done:  E(RB3LYP) =  -955.729907999     A.U. after    1 cycles

 The electronic state is 1-A.
 Alpha  occ. eigenvalues --  -19.20381 -19.14037 -19.10467 -14.38060 -14.35799
 Alpha  occ. eigenvalues --  -10.32050 -10.28307 -10.24506 -10.23790 -10.21847
 Alpha  occ. eigenvalues --  -10.21793 -10.20429 -10.19738 -10.19236 -10.18844
 Alpha  occ. eigenvalues --  -10.18817 -10.18321 -10.18235 -10.18116 -10.18091
 Alpha  occ. eigenvalues --  -10.17800  -1.11001  -1.02544  -1.02031  -0.97837
 Alpha  occ. eigenvalues --   -0.92313  -0.83551  -0.81293  -0.79697  -0.76328
 Alpha  occ. eigenvalues --   -0.73439  -0.73122  -0.71270  -0.69777  -0.66467
 Alpha  occ. eigenvalues --   -0.62089  -0.61297  -0.59266  -0.58386  -0.56168
 Alpha  occ. eigenvalues --   -0.55077  -0.53577  -0.52214  -0.49238  -0.48374
 Alpha  occ. eigenvalues --   -0.48200  -0.47594  -0.46936  -0.45730  -0.44653
 Alpha  occ. eigenvalues --   -0.44282  -0.43154  -0.42739  -0.42598  -0.41951
 Alpha  occ. eigenvalues --   -0.41323  -0.41170  -0.40069  -0.39352  -0.39018
 Alpha  occ. eigenvalues --   -0.38053  -0.37381  -0.36466  -0.35910  -0.35799
 Alpha  occ. eigenvalues --   -0.34709  -0.33125  -0.32951  -0.30873  -0.28350
 Alpha  occ. eigenvalues --   -0.27257  -0.26105  -0.25061  -0.24415  -0.22069
 Alpha  occ. eigenvalues --   -0.20106
 Alpha virt. eigenvalues --   -0.02644  -0.00891   0.00328   0.02888   0.06084
 Alpha virt. eigenvalues --    0.07529   0.08101   0.09020   0.10389   0.11302
 Alpha virt. eigenvalues --    0.11787   0.12266   0.13159   0.14714   0.14759

 Mulliken charges:
               1
     1  N   -0.632730
     2  C   -0.036357
     3  H    0.201558
     4  C    0.649160
     5  O   -0.489625
     6  C   -0.370691
     7  H    0.169820
     8  H    0.178456
     9  C    0.067879
    10  C   -0.007405
    11  H    0.156104
    12  C    0.070386
    13  N   -0.689135
    14  H    0.326875
    15  C    0.312339
    16  C   -0.225361
    17  H    0.154921
    18  C   -0.164166
    19  H    0.120509
    20  C   -0.148955
    21  H    0.122748
    22  C   -0.150432
    23  H    0.122963
    24  O   -0.465049
    25  H    0.349993
    26  C   -0.225757
    27  H    0.164345
    28  H    0.177112
    29  H    0.184187
    30  C    0.574076
    31  C    0.153279
    32  C   -0.368639
    33  C   -0.552944
    34  O   -0.541407
    35  H    0.139537
    36  H    0.180488
    37  H    0.164406
    38  H    0.167249
    39  H    0.160266
 Sum of Mulliken charges =   0.00000

 Dipole moment (field-independent basis, Debye):
    X=             -0.8248    Y=             -2.9066    Z=              4.7731  Tot=              5.6490
 Quadrupole moment (field-independent basis, Debye-Ang):
   XX=           -125.4845   YY=           -110.4848   ZZ=           -121.6312
   XY=             -1.8355   XZ=              4.7951   YZ=              2.1787

  Exact polarizability: 236.470 -31.617 170.095 -28.498 -17.268 139.322
 Approx polarizability: 338.218 -63.381 282.480 -54.020 -42.558 226.319

                      1                      2                      3
                      A                      A                      A
 Frequencies --     18.7618                25.8310                35.8577
 Red. masses --      5.1268                 3.7477                 4.4532
 Frc consts  --      0.0011                 0.0015                 0.0034
 IR Inten    --      0.3525                 2.1857                 1.1106

                      4                      5                      6
                      A                      A                      A
 Frequencies --     42.7890                65.5795                73.9931
 Red. masses --      4.9186                 5.5135                 5.6135
 Frc consts  --      0.0053                 0.0140                 0.0181
 IR Inten    --      2.0755                 7.4620                 0.7587

                      7                      8                      9
                      A                      A                      A
 Frequencies --     83.3279               109.6046               121.1801
 Red. masses --      5.7401                 4.1281                 4.2213
 Frc consts  --      0.0235                 0.0292                 0.0365
 IR Inten    --      2.5101                 1.7227                 0.1705

                     10                     11                     12
                      A                      A                      A
 Frequencies --    157.7175               179.1843               189.5905
 Red. masses --      1.1527                 4.6214                 3.6314
 Frc consts  --      0.0169                 0.0874                 0.0769
 IR Inten    --      0.4525                 1.1812                 4.9164

                     13                     14                     15
                      A                      A                      A
 Frequencies --    211.7083               226.9044               228.1394
 Red. masses --      2.7496                 1.4241                 2.5816
 Frc consts  --      0.0726                 0.0432                 0.0792
 IR Inten    --      0.9759                 1.7402                 9.3051

                     16                     17                     18
                      A                      A                      A
 Frequencies --    267.8821               297.0087               319.4750
 Red. masses --      4.0777                 4.9767                 3.3130
 Frc consts  --      0.1724                 0.2587                 0.1992
 IR Inten    --      3.8119                13.4912                 5.3885

                     19                     20                     21
                      A                      A                      A
 Frequencies --    333.5784               359.9017               378.2350
 Red. masses --      2.7415                 2.2751                 3.5430
 Frc consts  --      0.1797                 0.1736                 0.2986
 IR Inten    --      9.2222                52.4117                10.5319

                     22                     23                     24
                      A                      A                      A
 Frequencies --    397.7402               424.5315               439.9839
 Red. masses --      1.7046                 3.8000                 2.9515
 Frc consts  --      0.1589                 0.4035                 0.3366
 IR Inten    --     35.8359                 5.2517                 0.5617

                     25                     26                     27
                      A                      A                      A
 Frequencies --    465.9613               469.9421               497.6010
 Red. masses --      2.0477                 1.9027                 3.9747
 Frc consts  --      0.2620                 0.2476                 0.5799
 IR Inten    --     53.8652                36.6890                14.5612

                     28                     29                     30
                      A                      A                      A
 Frequencies --    534.8028               563.2863               576.4768
 Red. masses --      5.1650                 5.6798                 4.0480
 Frc consts  --      0.8704                 1.0618                 0.7926
 IR Inten    --      8.8130                 1.7281                11.6544

                     31                     32                     33
                      A                      A                      A
 Frequencies --    588.7838               608.1285               649.9976
 Red. masses --      3.4367                 3.7726                 4.1744
 Frc consts  --      0.7019                 0.8220                 1.0391
 IR Inten    --      7.0256                 4.0731                 4.9502

                     34                     35                     36
                      A                      A                      A
 Frequencies --    661.3279               678.3401               716.4835
 Red. masses --      2.9956                 1.5702                 4.7700
 Frc consts  --      0.7719                 0.4257                 1.4427
 IR Inten    --      4.5356                 6.9104                 1.1208

                     37                     38                     39
                      A                      A                      A
 Frequencies --    758.8033               771.1895               778.4510
 Red. masses --      1.2696                 4.4224                 5.1455
 Frc consts  --      0.4307                 1.5496                 1.8371
 IR Inten    --     67.2393                 4.7463                 3.0279

                     40                     41                     42
                      A                      A                      A
 Frequencies --    789.2362               821.5374               832.1456
 Red. masses --      1.7085                 2.1649                 3.0292
 Frc consts  --      0.6270                 0.8609                 1.2359
 IR Inten    --      7.1661                10.3294                 1.6973

                     43                     44                     45
                      A                      A                      A
 Frequencies --    858.9196               867.0753               887.6671
 Red. masses --      2.1108                 2.6263                 4.8519
 Frc consts  --      0.9175                 1.1633                 2.2525
 IR Inten    --      3.8343                 1.1947                 1.1062

                     46                     47                     48
                      A                      A                      A
 Frequencies --    902.5683               929.9195               932.4238
 Red. masses --      3.1130                 2.7830                 1.4971
 Frc consts  --      1.4941                 1.4179                 0.7669
 IR Inten    --     14.4863                 6.1540                 1.9958

                     49                     50                     51
                      A                      A                      A
 Frequencies --    973.6535               975.2536               978.5558
 Red. masses --      1.2424                 2.2688                 2.4803
 Frc consts  --      0.6939                 1.2714                 1.3993
 IR Inten    --      2.7436                18.6791                 1.2236

                     52                     53                     54
                      A                      A                      A
 Frequencies --    979.8220              1032.9189              1045.7356
 Red. masses --      1.3459                 1.3863                 2.1638
 Frc consts  --      0.7613                 0.8714                 1.3942
 IR Inten    --     31.1715                14.7333                 5.7558

                     55                     56                     57
                      A                      A                      A
 Frequencies --   1059.1496              1080.1106              1083.5811
 Red. masses --      4.1724                 3.7062                 1.4588
 Frc consts  --      2.7577                 2.5475                 1.0092
 IR Inten    --     32.5184                37.9618                 0.4116

                     58                     59                     60
                      A                      A                      A
 Frequencies --   1116.9893              1142.2800              1160.3236
 Red. masses --      1.5551                 3.4575                 1.6014
 Frc consts  --      1.1432                 2.6580                 1.2703
 IR Inten    --     25.4453                 5.6808                 5.1361

                     61                     62                     63
                      A                      A                      A
 Frequencies --   1186.7931              1188.1733              1216.6977
 Red. masses --      1.2341                 1.2182                 1.5014
 Frc consts  --      1.0241                 1.0133                 1.3095
 IR Inten    --      6.9195                 1.7870                33.4823

                     64                     65                     66
                      A                      A                      A
 Frequencies --   1222.0054              1234.8250              1255.5775
 Red. masses --      1.3888                 2.2052                 2.2518
 Frc consts  --      1.2219                 1.9811                 2.0915
 IR Inten    --     26.8219                91.0005                 9.4415

                     67                     68                     69
                      A                      A                      A
 Frequencies --   1279.4605              1287.3191              1293.3505
 Red. masses --      1.4568                 2.1861                 1.6396
 Frc consts  --      1.4051                 2.1345                 1.6159
 IR Inten    --     11.7524               137.9414                30.3427

                     70                     71                     72
                      A                      A                      A
 Frequencies --   1309.3817              1331.7573              1364.5693
 Red. masses --      2.2899                 2.3980                 2.1338
 Frc consts  --      2.3131                 2.5058                 2.3410
 IR Inten    --     64.6326                 4.5547                38.4202

                     73                     74                     75
                      A                      A                      A
 Frequencies --   1383.0248              1391.7774              1404.9551
 Red. masses --      3.7448                 1.7148                 1.8394
 Frc consts  --      4.2203                 1.9570                 2.1392
 IR Inten    --     14.7357                39.6883                 2.3875

                     76                     77                     78
                      A                      A                      A
 Frequencies --   1429.0033              1454.8076              1464.0608
 Red. masses --      1.1785                 1.2635                 2.5114
 Frc consts  --      1.4179                 1.5756                 3.1717
 IR Inten    --      3.8576                12.9639                19.4360

                     79                     80                     81
                      A                      A                      A
 Frequencies --   1491.6615              1501.7218              1512.9903
 Red. masses --      1.2132                 2.4870                 1.1085
 Frc consts  --      1.5904                 3.3045                 1.4951
 IR Inten    --      8.7727                22.4892                14.6134

                     82                     83                     84
                      A                      A                      A
 Frequencies --   1514.0508              1515.6422              1525.1621
 Red. masses --      1.0598                 1.0447                 1.0563
 Frc consts  --      1.4313                 1.4140                 1.4477
 IR Inten    --      1.1740                 6.9697                13.6400

                     85                     86                     87
                      A                      A                      A
 Frequencies --   1529.3894              1538.9706              1553.8844
 Red. masses --      1.1087                 2.8489                 1.7778
 Frc consts  --      1.5279                 3.9755                 2.5291
 IR Inten    --     93.9684                 5.6421               355.5613

                     88                     89                     90
                      A                      A                      A
 Frequencies --   1602.4735              1631.0236              1676.5531
 Red. masses --      5.4809                 5.5508                 5.9467
 Frc consts  --      8.2924                 8.7002                 9.8483
 IR Inten    --     11.5432                 0.8559                 3.4252

                     91                     92                     93
                      A                      A                      A
 Frequencies --   1705.1277              1760.6390              1822.5823
 Red. masses --      6.2610                 7.9002                11.3253
 Frc consts  --     10.7252                14.4288                22.1654
 IR Inten    --     67.9980               107.5124               177.8848

                     94                     95                     96
                      A                      A                      A
 Frequencies --   3031.3813              3071.2239              3079.9803
 Red. masses --      1.0401                 1.0607                 1.1002
 Frc consts  --      5.6311                 5.8945                 6.1490
 IR Inten    --     19.5502                14.4506                18.4331

                     97                     98                     99
                      A                      A                      A
 Frequencies --   3081.6674              3105.5495              3119.3203
 Red. masses --      1.0287                 1.0837                 1.1041
 Frc consts  --      5.7559                 6.1580                 6.3298
 IR Inten    --     28.1042                 6.6809                 6.3426

                    100                    101                    102
                      A                      A                      A
 Frequencies --   3130.5529              3163.9446              3175.0652
 Red. masses --      1.0982                 1.1082                 1.0604
 Frc consts  --      6.3415                 6.5364                 6.2982
 IR Inten    --     20.3851                12.6304                11.9291

                    103                    104                    105
                      A                      A                      A
 Frequencies --   3180.4685              3186.6401              3189.6165
 Red. masses --      1.0855                 1.1080                 1.0895
 Frc consts  --      6.4696                 6.6290                 6.5307
 IR Inten    --      0.5217                12.2074                18.5457

                    106                    107                    108
                      A                      A                      A
 Frequencies --   3203.5003              3213.6061              3265.4255
 Red. masses --      1.0938                 1.0950                 1.0964
 Frc consts  --      6.6137                 6.6626                 6.8882
 IR Inten    --     28.9037                10.9940                 1.5882

                    109                    110                    111
                      A                      A                      A
 Frequencies --   3267.8536              3661.9731              3667.3813
 Red. masses --      1.1159                 1.0772                 1.0800
 Frc consts  --      7.0212                 8.5112                 8.5583
 IR Inten    --      2.7899                34.0099                59.1559

 - Thermochemistry -
 -------------------
 Temperature   298.150 Kelvin.  Pressure   1.00000 Atm.
 Atom     1 has atomic number  7 and mass  14.00307

 Molecular mass:   286.13174 amu.
 Principal axes and moments of inertia in atomic units:
                           1         2         3
     Eigenvalues --  3714.445618559.67557**********
           X            0.99985  -0.01665   0.00508
           Y            0.01664   0.99986   0.00188
           Z           -0.00511  -0.00180   0.99999
 This molecule is an asymmetric top.
 Rotational symmetry number  1.
 Warning -- assumption of classical behavior for rotation
           may cause significant error
 Rotational temperatures (Kelvin)      0.02332     0.01012     0.00861
 Rotational constants (GHZ):           0.48587     0.21084     0.17942
 Zero-point vibrational energy     838178.5 (Joules/Mol)
                                  200.32948 (Kcal/Mol)
 Warning -- explicit consideration of  32 degrees of freedom as
           vibrations may cause significant error
 Vibrational temperatures:     26.99    37.17    51.59    61.56    94.35
          (Kelvin)            106.46   119.89   157.70   174.35   226.92
                              257.81   272.78   304.60   326.46   328.24
                              385.42   427.33   459.65   479.94   517.82
                              544.20   572.26   610.81   633.04   670.41
                              676.14   715.94   769.46   810.44   829.42
                              847.13   874.96   935.20   951.50   975.98
                             1030.86  1091.75  1109.57  1120.02  1135.53
                             1182.01  1197.27  1235.79  1247.53  1277.15
                             1298.59  1337.95  1341.55  1400.87  1403.17
                             1407.92  1409.74  1486.14  1504.58  1523.88
                             1554.04  1559.03  1607.10  1643.48  1669.44
                             1707.53  1709.51  1750.55  1758.19  1776.64
                             1806.49  1840.86  1852.16  1860.84  1883.91
                             1916.10  1963.31  1989.86  2002.45  2021.41
                             2056.01  2093.14  2106.45  2146.17  2160.64
                             2176.85  2178.38  2180.67  2194.37  2200.45
                             2214.23  2235.69  2305.60  2346.68  2412.18
                             2453.30  2533.16  2622.29  4361.48  4418.80
                             4431.40  4433.83  4468.19  4488.00  4504.16
                             4552.20  4568.20  4575.98  4584.86  4589.14
                             4609.12  4623.66  4698.21  4701.71  5268.76
                             5276.54

 Zero-point correction=                           0.319245 (Hartree/Particle)
 Thermal correction to Energy=                    0.339477
 Thermal correction to Enthalpy=                  0.340421
 Thermal correction to Gibbs Free Energy=         0.268172
 Sum of electronic and zero-point Energies=           -955.410663
 Sum of electronic and thermal Energies=              -955.390431
 Sum of electronic and thermal Enthalpies=            -955.389487
 Sum of electronic and thermal Free Energies=         -955.461736

                     E (Thermal)             CV                S
                      KCal/Mol        Cal/Mol-Kelvin    Cal/Mol-Kelvin
 Total                  213.025             75.984            152.063
 Electronic               0.000              0.000              0.000
 Translational            0.889              2.981             42.852
 Rotational               0.889              2.981             34.124
 Vibrational            211.248             70.022             75.087
 Vibration     1          0.593              1.986              6.761
 Vibration     2          0.593              1.985              6.126
 Vibration     3          0.594              1.982              5.476
 Vibration     4          0.595              1.980              5.126
 Vibration     5          0.597              1.971              4.282
 Vibration     6          0.599              1.966              4.044
 Vibration     7          0.600              1.961              3.811
 Vibration     8          0.606              1.942              3.276
 Vibration     9          0.609              1.932              3.081
 Vibration    10          0.621              1.894              2.577
 Vibration    11          0.629              1.868              2.337
 Vibration    12          0.633              1.854              2.232
 Vibration    13          0.643              1.823              2.029
 Vibration    14          0.651              1.800              1.903
 Vibration    15          0.651              1.798              1.894
 Vibration    16          0.673              1.732              1.610
 Vibration    17          0.691              1.679              1.434
 Vibration    18          0.705              1.636              1.313
 Vibration    19          0.715              1.608              1.243
 Vibration    20          0.734              1.555              1.123
 Vibration    21          0.749              1.517              1.046
 Vibration    22          0.764              1.475              0.971
 Vibration    23          0.787              1.417              0.877
 Vibration    24          0.800              1.383              0.827
 Vibration    25          0.823              1.326              0.749
 Vibration    26          0.827              1.317              0.738
 Vibration    27          0.853              1.255              0.664
 Vibration    28          0.890              1.173              0.577
 Vibration    29          0.919              1.111              0.517
 Vibration    30          0.933              1.082              0.492
 Vibration    31          0.946              1.056              0.469
 Vibration    32          0.967              1.015              0.436

 Normal termination of Gaussian 09 at Mon Dec 18 20:51:46 2023.
